1
Lattice="20.0 0.0 0.0 0.0 20.0 0.0 0.0 0.0 20.0" Properties=species:S:1:pos:R:3:forces_xtb:R:3:MACE_forces:R:3 config_type=IsolatedAtom energy_xtb=-10.707211383396714 MACE_energy=-10.707211383396714 pbc="F F F"
H        0.00000000       0.00000000       0.00000000      -0.00000000      -0.00000000      -0.00000000      -0.00000000      -0.00000000      -0.00000000
1
Lattice="20.0 0.0 0.0 0.0 20.0 0.0 0.0 0.0 20.0" Properties=species:S:1:pos:R:3:forces_xtb:R:3:MACE_forces:R:3 config_type=IsolatedAtom energy_xtb=-48.847445262804705 MACE_energy=-48.847445262804705 pbc="F F F"
C        0.00000000       0.00000000       0.00000000      -0.00000000      -0.00000000      -0.00000000      -0.00000000      -0.00000000      -0.00000000
1
Lattice="20.0 0.0 0.0 0.0 20.0 0.0 0.0 0.0 20.0" Properties=species:S:1:pos:R:3:forces_xtb:R:3:MACE_forces:R:3 config_type=IsolatedAtom energy_xtb=-102.57117256025786 MACE_energy=-102.57117256025786 pbc="F F F"
O        0.00000000       0.00000000       0.00000000      -0.00000000      -0.00000000      -0.00000000      -0.00000000      -0.00000000      -0.00000000
24
Properties=species:S:1:pos:R:3:molID:I:1:forces_xtb:R:3:MACE_forces:R:3 Nmols=3 Comp=VC(3) energy_xtb=-1602.093208085042 MACE_energy=-1601.5658276313598 pbc="F F F"
C        0.45285612       3.01426506      -2.32330513        0       3.62106606      -1.12550680      -0.19684125       3.59189227      -1.05247010      -0.27256397
C       -0.65326887       3.32036090      -1.70732403        0      -1.81489737       1.01194504      -0.49020132      -1.99610104       0.90503355      -0.39759115
O       -0.82637185       2.63587189      -0.55307001        0       1.41031489      -1.26663628       0.06188905       1.35908263      -1.30057118      -0.13495144
C        0.26635113       1.80842292      -0.42423803        0       1.27416396       1.38844752      -1.73986379       1.39179192       1.10457922      -0.61742617
O        0.50404215       1.07012391       0.47730500        0      -0.61981038       0.63996309      -0.89362449      -0.43121037       0.81137736      -1.26695199
O        1.20395112       2.09938192      -1.54059100        0      -3.53123319       0.61084665       1.50360436      -3.40616341       0.38020233       1.15851981
H        0.99488211       3.42258286      -3.19497991        0      -0.71396603      -0.51942534       0.75149469      -0.61238770      -0.47529100       0.71211500
H       -1.42996383       3.95062685      -2.12583590        0       0.03097542      -0.19964488       0.59769880      -0.01790948      -0.15957774       0.56572736
C        1.26803315       0.08491497       2.52308202        1       0.65480947      -1.14022036       2.08585961       0.53769907      -0.82842796       2.56507578
C        0.71784115      -0.92897701       3.20788789        1      -5.26405952       0.22643523       1.88452821      -5.41752794       0.03294584       1.89587903
O        0.64552510      -2.02956414       2.40690088        1       0.96823076      -0.94201777       0.52119636       1.16661392      -0.56544113       0.56834916
C        1.62233818      -1.82807600       1.46278298        1      -0.41482569      -1.20143422      -1.22733270      -0.51946933      -1.84854685      -1.15980913
O        2.07954812      -2.65240097       0.69964898        1      -0.91853127       1.45343521       1.43428658      -0.85723913       1.60828913       1.44182306
O        1.90033615      -0.53814703       1.52785194        1       2.51044506       0.92653883      -1.79500979       2.48986940       1.23915198      -2.44268730
H        1.60973608       0.97362196       3.01618791        1       0.04719281       0.33493254      -0.77449250      -0.08096697       0.21644918      -0.80517633
H       -0.23638988      -0.89091206       3.98334789        1       2.80150221      -0.10651323      -1.71485168       2.90281690      -0.09477423      -1.70711925
C       -2.61711597      -1.50253499       0.01472599        2       0.50478395       2.47864959      -1.00566519       0.42644789       2.42079002      -1.00497088
C       -1.65134692      -2.33284712      -0.23200200        2       2.75766410      -1.01761516      -0.45354364       2.47529702      -1.07253426      -0.55600988
O       -0.75461686      -1.64041007      -1.12287402        2      -0.07451072      -2.49583912       0.90103163       0.18504375      -2.40707295       0.95053130
C       -1.23930693      -0.42871904      -1.39447701        2       0.29818897      -0.80850703      -0.94432786       0.10712387      -0.62405290      -1.03374490
O       -0.76134789       0.30777997      -2.22421694        2      -0.98455609      -0.47602768       1.41198409      -0.81442536      -0.31585667       1.34953156
O       -2.37302589      -0.32890302      -0.69123900        2      -1.25788384       1.06603386       0.34345775      -1.18488210       0.86978673       0.32421576
H       -3.27383399      -1.43262005       0.79540098        2      -1.76535623      -0.00240229       1.06447075      -1.66471896       0.04108932       1.14625324
H       -1.51131582      -3.31143308       0.29795000        2       0.48029268       1.16456260      -1.32574766       0.36932317       1.11492231      -1.27901868
22
Properties=species:S:1:pos:R:3:molID:I:1:forces_xtb:R:3:MACE_forces:R:3 Nmols=2 Comp=DMC(1):EC(1) energy_xtb=-1151.6688033579703 MACE_energy=-1151.7044239756237 pbc="F F F"
C        2.69088602       2.54591513      -2.12696218        0      -1.44302882       4.71896954       1.76744346      -1.48031988       4.72135634       1.75034213
O        2.34068704       3.64524508      -1.67616713        0       0.49261950      -2.16502856      -0.87601464       0.53574097      -2.26000137      -0.90068171
O        1.94911408       1.49887204      -2.25967312        0       0.08290276      -1.50319163      -0.60949423       0.08668059      -1.47541954      -0.60672758
O        3.84929514       2.26471615      -2.58353305        0       2.38826982      -1.13778665      -0.64777106       2.46379519      -1.11927912      -0.50913659
C        0.58085805       1.60748911      -2.26327205        0      -1.67246761      -0.37329840      -0.89736654      -1.68657009      -0.32090605      -0.92834667
C        4.93368006       3.14626217      -2.62285423        0       2.55973756      -0.98252846      -1.05991298       2.49108345      -0.89760132      -1.11281699
H        0.20010208       1.35155511      -1.32161117        0      -0.59307375      -0.34573938       1.76688746      -0.54009497      -0.38692059       1.71232534
H        0.13602108       2.57295012      -2.51098919        0       0.55033615       0.21276971      -0.24590246       0.52026282       0.24136966      -0.24806724
H        0.19209708       0.83466810      -2.94893003        0       0.20277521       0.32784010      -0.10811587       0.17590854       0.31261877      -0.04240532
H        5.82548094       2.54683304      -3.02168822        0      -1.01599830      -0.01199392       0.62864621      -1.05173300       0.02391603       0.63224325
H        4.87149000       3.85138416      -3.42286325        0      -0.77010801       1.05527897      -0.16147346      -0.72121566       1.03187961      -0.22202904
H        5.33360624       3.57181811      -1.71259320        0      -0.78097032       0.20739009       0.44230873      -0.79353797       0.12898758       0.47530041
C       -3.41220593      -1.40147686       1.27721584        1       3.64054136      -2.81566267       1.08263902       3.65184106      -2.75051978       1.05345653
O       -2.92165089      -1.47329795       2.67879891        1      -1.00730296       1.23045966      -1.84974758      -1.05202630       1.10835779      -1.84784111
C       -2.61571789      -2.75121093       2.98010492        1       2.01716624       2.21029162       2.34244272       1.65016612       2.18210134       2.35278742
O       -3.01706386      -3.61698890       2.14714384        1      -0.84185866      -0.82087526      -3.92810567      -0.72385019      -0.67405382      -3.88712502
C       -2.94653201      -2.85366082       0.89804888        1      -1.06634372      -0.75061646      -0.84421464      -0.93295748      -0.69195672      -1.05720140
H       -4.42421579      -1.24309289       1.20551991        1      -2.15521241       0.42518767       0.11001940      -2.10302549       0.43158874       0.17728575
H       -2.80409384      -0.83304894       0.58278483        1      -0.06996537       1.03528950       0.60791017      -0.08668489       1.04332770       0.53376866
O       -1.86870396      -2.94726801       3.88132596        1      -0.13940783      -0.44661913       1.10839100       0.06084605      -0.49883260       1.34815280
H       -3.50762296      -3.30938387       0.07090886        1      -0.53079339      -0.18326027       0.61016437      -0.61649468      -0.24493503       0.68519583
H       -1.93009996      -2.85789800       0.47551787        1       0.15218256       0.11312392       0.76126658       0.15218581       0.09492237       0.64152054
25
Properties=species:S:1:pos:R:3:molID:I:1:forces_xtb:R:3:MACE_forces:R:3 Nmols=2 Comp=DMC(1):PC(1) energy_xtb=-1237.237209489243 MACE_energy=-1237.2853962285458 pbc="F F F"
C        2.67575073       2.86108518      -2.86082530        0      -1.30097570      -1.36862690       1.83477318      -1.35076811      -1.20133552       1.81288377
O        2.76785755       3.16294599      -1.37367737        0       2.81754333       3.21457277      -4.01299763       2.88571395       3.16592415      -4.07717150
C        2.53783751       2.18929100      -0.59767431        0      -0.55950426       2.04121600       5.40751014      -0.68054175       2.22373599       5.49320568
O        1.93164957       1.26053202      -1.20610726        0      -1.61137385      -3.50925478      -2.49817815      -1.47212195      -3.56124461      -2.57756993
C        1.75701964       1.53768110      -2.68214726        0       1.83647158       0.68400742       2.01585908       1.57912467       0.59336689       2.09458705
C        1.82226360       3.92414308      -3.45830131        0      -0.23871064       0.37550063      -1.29201094      -0.22763758       0.36256264      -1.29858427
H        3.62236261       2.79383111      -3.48461127        0      -0.71111490      -0.40100834       1.51896640      -0.66308208      -0.45910433       1.58736118
O        2.62325168       2.39863515       0.62851471        0       0.06653047      -1.57737196      -3.09928319       0.11050805      -1.64372906      -3.16179647
H        0.69594961       1.78663802      -2.79194736        0       0.33209784      -0.31548514      -0.25553672       0.33276403      -0.47380838      -0.24496520
H        2.12722850       0.64140809      -3.18146920        0      -0.32683081       0.22616509      -0.09842209      -0.27624861       0.36567094      -0.12390490
H        0.94558364       4.07772589      -2.83702040        0       0.23616695       0.63635891       0.22349728       0.20559553       0.65168095       0.24615954
H        2.44793057       4.83902597      -3.65341330        0      -1.11245845      -0.83020881       0.14549641      -1.00738728      -0.83121443       0.13992089
H        1.39495564       3.45968413      -4.37784052        0       0.56515652       0.82509144       0.10667999       0.56408114       0.80749476       0.10987416
C       -2.77969742      -2.77740502       1.95494866        1       1.98409950      -0.14078010      -1.93362978       1.97957112      -0.09996993      -2.01992433
O       -3.66863132      -2.42830992       2.60583663        1      -2.90542638       1.44794122       1.50300244      -2.88087230       1.44713611       1.50993950
O       -2.29131937      -2.42984796       0.79584169        1      -1.00253771       3.19629893      -3.24858669      -0.95307336       3.14867068      -3.15936682
O       -1.89286339      -3.66918087       2.21758556        1       1.54786360      -2.60940773       1.41288002       1.44913996      -2.57985028       1.39364600
C       -2.91089439      -1.28356600       0.07705668        1       1.89642600      -1.15162137      -0.78334730       1.89741829      -1.10705238      -0.86643346
C       -2.05939937      -4.26767588       3.43624568        1       0.99074494      -3.64001500       0.93542783       1.03639672      -3.74016598       1.10019571
H       -3.72709346      -1.70948493      -0.53036433        1       0.38969980       0.63617318       0.22162127       0.41115177       0.63046996       0.22847466
H       -3.16581345      -0.57542592       0.80696666        1      -1.04987185       0.78259073       0.93248256      -1.07832883       0.80994301       0.94169979
H       -2.09199142      -0.74095094      -0.52423334        1      -1.07479040      -1.32118166       0.47894917      -1.11212692      -1.32358079       0.45642421
H       -1.32394242      -5.09556913       3.62502956        1      -0.15739394       0.56448693      -0.84804908      -0.09458862       0.54578973      -0.89108042
H       -1.93663037      -3.67549205       4.25493479        1       0.62014139       2.56192162       2.09449974       0.61588217       2.56710275       2.10871528
H       -2.99357438      -4.73741913       3.66374469        1      -1.23195305      -0.32736309      -0.76160393      -1.27056999      -0.29849287      -0.80229013
27
Properties=species:S:1:pos:R:3:molID:I:1:forces_xtb:R:3:MACE_forces:R:3 Nmols=2 Comp=DMC(1):EMC(1) energy_xtb=-1265.180028034832 MACE_energy=-1265.3286044151137 pbc="F F F"
C       -2.03106403       0.65746909       0.26760513        0       0.98555934      -0.42535498      -0.10633788       0.57216309      -0.28256093      -0.41591305
O       -1.07807493       0.48504212       1.01702011        0      -2.17789891       0.87992234      -2.16891800      -1.86292312       0.85587950      -2.11739290
O       -3.26775193       0.23020512       0.42069915        0      -0.74313263      -0.38011230      -0.33893217      -0.59612509      -0.33150211      -0.22873456
O       -2.21094799       1.20861411      -0.95951784        0       2.83182507       0.12702591      -0.60351812       2.94748591       0.05078635      -0.49611379
C       -3.54576588      -0.43989488       1.59327912        0      -0.55223350       0.92076065       2.17889453      -0.50132908       0.87774377       2.16178496
C       -0.96694797       1.71850216      -1.62740982        0      -2.55346537      -0.97363999      -0.17803650      -2.65763056      -0.99489090      -0.25428806
C       -5.02091789      -0.62569290       1.77413309        0      -2.43043276      -3.38432755      -1.10590042      -2.39287968      -3.37108558      -1.13488739
H       -3.05448604      -1.41090190       1.60176313        0       0.36670347       0.08595527       0.39358467       0.32616702       0.08157653       0.41271260
H       -3.22410202       0.31734413       2.37260509        0       0.18724531      -1.36618818       0.08940653       0.16398944      -1.39504747       0.08704629
H       -0.72410798       2.40959311      -0.88021588        0       1.32314528       1.44888278       0.16549100       1.33655231       1.49282061       0.22085185
H       -0.25252098       0.92709315      -1.77050185        0       0.18392482      -0.28990190       0.25588645       0.11086456      -0.34252896       0.25810811
H       -5.35431385      -1.19761384       2.70942616        0       0.98390135       0.83072053      -1.14347294       0.94070215       0.84243085      -1.17745702
H       -5.65353584       0.21069811       1.69021618        0      -0.07093223       1.50044560       0.24868063      -0.07723864       1.46477920       0.26321302
H       -5.48677492      -1.27245092       0.88484311        0       1.25100885       0.82632357       1.54819069       1.25718925       0.83692327       1.59963435
H       -1.31561697       2.06881022      -2.61999083        0       0.27156532       0.17735849       0.84257396       0.27740012       0.18873550       0.84588765
C        2.86216998      -0.54789591      -0.30648586        1      -1.29999496       2.83588086       0.24865513      -1.02370909       2.72798847      -0.03880179
O        2.04342008       0.15615812       0.27660215        1       1.24049576      -2.48924095       0.49428262       0.98428246      -2.44641410       0.66092199
O        3.26260614      -0.10306588      -1.49444783        1       0.72998208      -0.98746920      -0.72248560       0.58904048      -1.02571198      -0.41015528
O        3.59369302      -1.61061084      -0.04163986        1       0.26854721       0.34168970       0.19012287       0.17508150       0.41846184       0.20376579
C        2.62956214       0.98352611      -2.09231687        1      -0.27224153       1.06504974      -0.20527242      -0.13047672       1.04226768      -0.30319594
C        3.55574894      -2.15067077       1.29780114        1      -1.62342756       0.93331613      -1.30990327      -1.54275611       0.89163648      -1.26520336
H        1.88944602       0.64559013      -2.80296278        1      -0.24807240      -0.30642385      -0.38656659      -0.24073538      -0.24081128      -0.38383302
H        2.08495712       1.70345008      -1.42564690        1       0.87038645      -0.68158457      -0.08896534       0.89568276      -0.62716508      -0.12158077
H        3.46013594       1.43517017      -2.62836289        1      -0.20121891       0.54651175      -0.12191244      -0.22404370       0.53863697      -0.17383885
H        4.11010695      -3.05958986       1.20176017        1       0.94234581      -0.03528665       0.59829777       0.95696168      -0.03084363       0.59835906
H        3.79936910      -1.30624783       1.98418510        1      -0.03427572      -1.25933599      -0.12544949      -0.02644602      -1.28564575      -0.10557624
H        2.50926495      -2.46688581       1.28762710        1      -0.22930963       0.05902281       1.35160434      -0.25726952       0.06354075       1.31468636
40
Properties=species:S:1:pos:R:3:molID:I:1:forces_xtb:R:3:MACE_forces:R:3 Nmols=4 Comp=EC(4) energy_xtb=-2248.1644835301763 MACE_energy=-2247.777721688909 pbc="F F F"
C       -0.45859733       3.28287387      -3.49498057        0      -1.02964088       2.44036197      -2.62142183      -0.79257029       2.17692989      -2.59415911
O        0.88948870       3.79171300      -3.25429845        0      -2.44024720      -0.78844767       0.70340402      -2.56847336      -0.62876762       0.85472172
C        1.77967572       2.90106797      -3.77192235        0       0.17839822       3.88313800      -0.31232209       0.44482109       3.73408648      -0.07914161
O        1.17627263       1.93414199      -4.35922432        0      -0.15995377      -2.00047855      -0.64709496      -0.16354874      -1.96607125      -0.69717106
C       -0.21532533       1.93098700      -4.04651356        0      -0.23860181      -3.35198939       0.13525636      -0.21297043      -3.26960540       0.20657752
H       -1.27154136       3.41099501      -2.76392436        0       1.11580969      -0.14261261       0.41614468       1.08628125      -0.15454174       0.52710388
H       -0.92158234       3.83359003      -4.43693542        0       1.01129830      -0.01693160       1.54962332       0.95739187      -0.01197889       1.45240056
O        2.90443778       3.31073308      -3.80425644        0       0.38751531      -1.65296589      -0.21742359       0.40900046      -1.63895358      -0.46392938
H       -0.37066332       1.10437799      -3.21093941        0       0.06712425       1.07272958      -1.56852920       0.04775407       1.13876522      -1.63966854
H       -0.76461333       1.62513399      -5.02565050        0       0.72730400       0.51091119       1.75312419       0.67713093       0.51790351       1.67167260
C       -3.80103922      -2.50376415       2.43770266        1      -1.00674411       0.71035417      -3.12390011      -0.86113459       0.60065316      -3.07446954
O       -3.38939834      -3.25377202       1.26028454        1       0.86604768      -0.66337216       0.52313075       0.76897354      -0.68143895       0.60892199
C       -2.30445933      -3.99550915       1.61562252        1       2.89373971      -0.24361420      -2.22550806       2.86607188      -0.34924505      -2.43046159
O       -2.14457035      -4.05070019       2.94205546        1      -0.67962715       0.54789211      -0.54771738      -0.60107524       0.56764516      -0.33129461
C       -2.87330842      -2.91826797       3.46709847        1       1.56061260      -1.69201553       3.42490023       1.44131313      -1.76607737       3.30801761
H       -3.50343823      -1.48718607       2.20085359        1      -0.75929802       0.62954262      -0.30100640      -0.75250245       0.77236405      -0.28999689
H       -4.90017223      -2.60740995       2.47806549        1       0.54052099      -0.11388727       0.50508620       0.53564991      -0.09656890       0.50112012
O       -1.42242634      -4.39646721       0.83060056        1      -3.30253559       0.80649153       2.09357706      -3.26016203       0.82390831       2.05248835
H       -2.05277324      -2.11510110       3.58914661        1      -1.30202574      -1.14077677       0.77284507      -1.16801081      -0.92839411       0.76261045
H       -3.41370034      -3.34911704       4.41145039        1       1.25499681       1.17876329      -1.12773283       1.21090406       1.13686378      -1.11076851
C        2.30157065       3.02082801      -0.87318546        2       2.05473850       0.98566782       0.38669201       1.77193740       0.96942248       0.40221299
O        1.55322373       4.09202099      -0.41163146        2      -1.49998819       0.19168174      -0.62351492      -1.11590168       0.36264270      -0.79180545
C        0.22185968       3.76526093      -0.52127045        2      -0.59176904       3.63828609       2.40993820      -1.13651831       3.11891022       2.58780143
O        0.00528267       2.46501303      -0.45626047        2       2.80117283      -0.67423269      -2.07082363       2.81632905      -0.35337192      -2.09363733
C        1.41516268       1.88063395      -0.86391044        2      -4.14718597      -3.45500107       0.38067975      -4.16750391      -3.47386022       0.30362810
H        2.83828473       3.31009007      -1.79112947        2      -0.49467311      -0.24972666      -0.00772500      -0.53556929      -0.24053310       0.06498605
H        3.08249879       2.85036993      -0.17078246        2       1.02991433      -0.06948351       1.03564458       1.07772529      -0.03168773       0.90200106
O       -0.57856935       4.68077612      -0.37167346        2       0.95681577      -2.54881062      -0.79633335       1.15840520      -2.52774189      -0.81095234
H        1.33951473       1.28182793      -1.79590452        2      -0.33893043       0.88495502      -0.16935120      -0.33463534       0.94160961       0.01298149
H        1.47189569       0.99151593      -0.16966246        2       0.60043592       1.35766190       0.25726959       0.57773399       1.37369006       0.17591512
C        0.88761669      -2.09321308       0.81132352        3      -3.70423616      -0.54123346      -1.44430376      -3.83574928      -0.42989847      -1.47148241
O        0.03761967      -1.97608399       2.01637745        3      -0.19455703       2.74456809      -1.17131930      -0.21459183       2.55459059      -0.98269401
C        0.60278767      -2.53470492       3.05735755        3       0.83635149      -2.68859326       0.63951379       0.57860038      -2.29750518       0.74668730
O        1.52326167      -3.40426898       2.49319744        3       0.03483702      -0.86690659       1.99679364       0.08221483      -1.06343504       1.85002814
C        1.51099765      -3.45389700       1.07032657        3       0.35855844       2.96666867       1.81723816       0.44598739       2.98166293       1.97459658
H        0.08297767      -2.01841211      -0.05692146        3       1.41167270      -0.55782875       1.48250804       1.41889845      -0.50566142       1.46678061
H        1.59659469      -1.32058406       0.56207752        3       0.19832599       0.54328106       0.92742040       0.22443500       0.41107779       0.83882974
O        0.34869966      -2.52002215       4.24030066        3       0.33005817       0.61831501      -2.51404155       0.31853076       0.48202222      -2.63459810
H        1.02420068      -4.25862026       0.65650052        3      -1.23837654      -1.83379367      -0.57210434      -1.10041794      -1.76878400      -0.60796137
H        2.53591371      -3.38821101       0.90628552        3       1.91214201      -0.41856793      -1.14861653       1.90524561      -0.48062632      -1.16789155
30
Properties=species:S:1:pos:R:3:molID:I:1:forces_xtb:R:3:MACE_forces:R:3 Nmols=3 Comp=EC(3) energy_xtb=-1687.2692238458048 MACE_energy=-1687.287658220829 pbc="F F F"
C       -4.12463999      -1.38331330      -2.42669320        0       0.09104650      -0.15763039       0.98994118       0.15663864      -0.09199154       0.94071790
O       -4.85671186      -0.58527428      -3.29135799        0      -0.98012076       1.37422403      -0.74262993      -0.95477591       1.16872876      -0.62631380
C       -4.90107059      -1.11834621      -4.56758595        0      -1.12794931       0.67673822       1.08467529      -1.15131271       0.70961703       0.93818715
O       -4.02001286      -2.08291125      -4.62866592        0       1.45807675      -0.89482105      -0.32429035       1.37570796      -0.83979461      -0.30776462
C       -3.24393392      -2.16244316      -3.42454815        0      -3.01201907      -1.17568812       0.95868559      -2.81488319      -1.15720658       0.95896278
H       -3.52626491      -0.84614927      -1.66835916        0      -0.08465048       0.41016128      -0.70877470      -0.13236444       0.43748167      -0.71468791
H       -4.85408068      -1.92120123      -1.77655911        0       0.41580059      -0.47198054      -0.69237947       0.33577714      -0.40022189      -0.63411074
O       -5.69529676      -0.78748024      -5.39322805        0       0.89551726      -0.15010949       0.47420076       0.93490708      -0.17386844       0.50260898
H       -2.31512570      -1.72622728      -3.47138715        0       2.10108454       0.96385609      -0.69241821       1.99008110       0.96886373      -0.69219074
H       -3.18651271      -3.17717123      -3.06380701        0       0.22651304      -0.58505138      -0.34151321       0.19019337      -0.62019839      -0.39529857
C        0.30978417      -0.65456825      -0.57457012        1       2.58552324      -0.84180302       0.97681712       2.61580361      -0.83737833       0.93156419
O       -0.88102782      -1.13273120      -0.17320210        1      -2.67352084      -0.34970297       1.23867786      -2.64512822      -0.46287492       1.33949609
C       -1.14308679      -2.33998322      -0.65088713        1       1.53931777       0.53508340      -2.08839916       1.53341189       0.63153814      -2.16479940
O       -0.15073483      -2.73469424      -1.49947405        1       1.74784525       0.60110252       0.75866028       1.96083955       0.56129027       0.83744465
C        0.98336518      -1.88646221      -1.22591114        1       0.75148662       0.75502601      -0.96806784       0.64157358       0.75633387      -1.00844195
H        0.22791818       0.14389074      -1.23837507        1      -0.32078005       1.57333470      -1.09122087      -0.25496944       1.51544041      -1.07124872
H        0.85364717      -0.37587824       0.35009891        1       0.08096431       0.30423257      -0.47223783       0.05973007       0.34403397      -0.40372070
O       -2.14108491      -2.93444228      -0.60166711        1      -2.03810674      -1.00249535       0.83374200      -2.21384101      -1.01246935       0.86474082
H        1.68404114      -1.63605428      -2.08693218        1      -1.57307414      -0.35718140       0.27611214      -1.51964810      -0.36676804       0.18691640
H        1.70171022      -2.23403931      -0.50286508        1      -0.08203307      -1.21664304       0.52584898      -0.10774099      -1.13055574       0.51793817
C        3.67231321       2.92746186       3.89800692        2      -0.55411990      -1.22280470       1.96551821      -0.51013155      -1.23404400       1.88414579
O        4.82196808       2.26200986       4.53771782        2      -2.75631484      -2.23145319      -0.78421429      -2.72263930      -2.24968755      -0.58178488
C        5.47337103       3.08063078       5.26452112        2       3.23302845       2.21541170       1.04417750       3.23371739       2.10906076       0.89194837
O        5.27526140       4.36545181       4.83315992        2      -0.63050348      -0.47204356      -0.05615252      -0.69241937      -0.48748936      -0.11769809
C        4.28790140       4.29067278       3.83464384        2      -0.82883767       2.07491570      -0.60316602      -0.82124396       2.17267432      -0.56132410
H        3.43658614       2.38041568       2.99494600        2       0.38128142       0.23686614      -0.39144115       0.43188984       0.18416703      -0.39653449
H        2.68566012       2.82074285       4.53663397        2       1.86752376       0.29129061      -0.53946525       1.87224190       0.32966143      -0.54655225
O        6.34440804       2.87332678       6.06447983        2      -1.10951032      -0.52041832      -0.39576775      -1.12818792      -0.51476808      -0.40361859
H        4.68179321       4.43559790       2.83605695        2       0.74582793       0.04762879      -0.35222316       0.69418462       0.02889489      -0.28084143
H        3.64824009       5.17260456       3.99479294        2      -0.34929678      -0.41004525       0.11730479      -0.35741165      -0.33846945       0.11225967
28