12
Properties=species:S:1:pos:R:3:molID:I:1:momenta:R:3:forces:R:3 Nmols=1 Comp=DMC(1) energy=-589.72216796875 free_energy=-589.72216796875 stress="1.0194277820119169e-05 5.621047876047669e-07 6.097352979850257e-06 5.621047876047669e-07 3.4474951462470926e-06 4.11832570534898e-06 6.097352979850257e-06 4.11832570534898e-06 8.116408025671262e-07" pbc="F F F"
C       -0.06354920       0.02615914       0.03273994        0      -0.19797246       0.67103070      -0.28990963      -1.09072316      -1.67466033      -2.54399681
O       -1.09745824      -0.56171083      -0.33384407        0      -0.35531485      -0.43379337       0.40796731       1.73105705       1.29204607       2.96386433
O        0.59339279       0.04178514       1.16893291        0      -1.49587055       0.00054705       0.51454566      -0.90931273       0.36878717       0.55341363
O        0.70731479       0.58054012      -0.92796504        0       0.35478282      -0.73635739      -0.59142045      -0.30509734      -0.65258390      -0.36810529
C       -0.18480919      -0.38314587       2.27627182        0       0.88781824       0.07094577      -0.70297533      -0.53408694       1.07838202       1.23462868
C        0.11790480       0.31317315      -2.18905210        0       0.76720946       1.00065035       0.91276279      -1.84771466       1.41123283      -1.70712304
H        0.50081283      -0.52887988       3.16355896        0       0.16174765       0.12441484       0.11749398      -0.80917394      -0.18292928      -1.17730641
H       -0.99130619       0.37122315       2.57026887        0       0.26613934      -0.12591758       0.15323862       1.16708291      -0.28347462      -0.29582679
H       -0.79898220      -1.19689691       1.93909299        0      -0.23234235      -0.08170387       0.13332027       0.12659141      -1.01617503       0.28362852
H        0.82173383       0.39293513      -3.04121518        0      -0.15884038      -0.07588541      -0.18674051      -0.02611756      -0.08972950       0.76644319
H       -0.51975018      -0.63449883      -2.23208618        0       0.03884525      -0.55056515      -0.36540089       1.29619348       0.98805851       0.14437862
H       -0.68493521       1.15580308      -2.35394812        0      -0.03620217       0.13663406      -0.10288184       1.20130169      -1.23895419       0.14600131
12
Properties=species:S:1:pos:R:3:molID:I:1:momenta:R:3:forces:R:3 Nmols=1 Comp=DMC(1) energy=-589.6275634765625 free_energy=-589.6275634765625 stress="-4.613409146259073e-06 -1.3703533113584854e-05 -3.2363930131396046e-06 -1.3703533113584854e-05 -8.6214658949757e-06 -1.5514109463765635e-06 -3.2363930131396046e-06 -1.5514109463765635e-06 -6.119053523434559e-06" pbc="F F F"
C       -0.09014309      -0.00343317      -0.04081660        0       0.31821686      -0.78736402      -0.68856287       3.66813064       0.95681685       1.50463676
O       -1.07149624      -0.57264507      -0.26268477        0       0.35942271       0.03181187       1.82811671      -3.57443929      -1.63864326      -0.43332750
O        0.49199425       0.07141754       1.16543346        0      -2.10994471       0.70404383      -1.00039895       1.26087499       0.72772151      -1.33712876
O        0.73268185       0.54066823      -0.97028176        0       0.75781908      -1.12581889      -0.23155727      -0.43055874       0.25344318       1.53068471
C       -0.14405602      -0.40231118       2.29465130        0      -0.02063098      -0.52137223       1.17590928       0.49560231       2.61038828       1.75819004
C        0.10416724       0.38668230      -2.19097289        0       0.31227237       1.03883018      -0.83833838       1.07683325       3.53677940      -2.63541770
H        0.62050215      -0.66692289       3.03415710        0       0.50507476      -0.12786054      -0.20395630       0.06330037       0.40869951      -0.08027099
H       -0.77647329       0.44840986       2.68304808        0       0.14149952       0.15936407      -0.07631677       0.36786354      -0.87868279       0.04326972
H       -0.70129084      -1.23981733       2.16464156        0       0.08671952      -0.07287663      -0.15021159      -1.90480983      -2.31366229      -0.81966484
H        0.92422955       0.46906044      -3.00124004        0       0.23213944       0.71459436       0.07221658      -1.22133911       0.94909912       0.88149017
H       -0.13568366      -0.58550077      -2.28521017        0      -0.08611469      -0.26260279       0.15548578      -1.74906504      -3.27519011      -0.30723137
H       -0.83173551       1.10565498      -2.29660107        0      -0.49647382       0.24925083      -0.04238621       1.94760680      -1.33676934      -0.10523047
12
Properties=species:S:1:pos:R:3:molID:I:1:momenta:R:3:forces:R:3 Nmols=1 Comp=DMC(1) energy=-589.5718994140625 free_energy=-589.5718994140625 stress="-3.712355692186975e-06 1.2324147746767267e-06 -8.150766007020138e-06 1.2324147746767267e-06 -7.358958555414574e-06 -5.047633749200031e-06 -8.150766007020138e-06 -5.047633749200031e-06 -6.233267868083203e-06" pbc="F F F"
C       -0.03096988      -0.03470052      -0.06562158        0      -0.13696042      -0.93782857      -0.54257041      -2.84171057      -1.41048872       0.49135524
O       -1.11223093      -0.57871247      -0.19798452        0      -0.57754130       0.49358933       0.34090445       0.49620295       0.27335411      -1.32085359
O        0.42872094       0.11107624       1.11664151        0       0.44379068       1.25890920       0.44470717       1.82406449       0.79369497       3.00885773
O        0.76110640       0.47995275      -0.97187705        0       0.00572775      -0.58022302      -0.20281929      -0.23457435       0.33952859      -0.48542321
C       -0.14424309      -0.44657663       2.38291229        0       0.56003396      -0.80723135       0.20371901       1.15561295       1.62087440      -2.29960799
C        0.12690202       0.45894796      -2.27984178        0       0.18345909       0.31874984      -0.44596264       0.87114573       2.91054034       1.44722164
H        0.78742558      -0.63309226       2.82177202        0       0.06796214      -0.33793819       0.07711997       0.99629593      -0.61354506       1.21153045
H       -0.65553166       0.32235739       2.92029963        0      -0.30180995      -0.26929765       0.59053415      -0.52389467       0.36899573       0.05531946
H       -0.69024102      -1.30236662       2.15543005        0      -0.00292635       0.01471299       0.20421149      -1.05627263      -1.24272060      -0.23091781
H        0.82927051       1.10277554      -2.84403931        0      -0.12354383       0.31031941      -0.29031456      -0.49351603      -1.25097311      -0.38106638
H       -0.18638760      -0.50749539      -2.37650916        0       0.31657033       0.38561235      -0.54508468       0.15229246      -2.56238651      -1.49809957
H       -0.82895764       0.96555933      -2.20358422        0      -0.43476210       0.15062584       0.16555540      -0.34564638       0.77312547       0.00168431
12
Properties=species:S:1:pos:R:3:molID:I:1:momenta:R:3:forces:R:3 Nmols=1 Comp=DMC(1) energy=-589.6178588867188 free_energy=-589.6178588867188 stress="-7.457430456270231e-06 2.453594333928777e-06 -4.5841963469683833e-07 2.453594333928777e-06 -2.3927318579808343e-06 -1.7599965076442459e-06 -4.5841963469683833e-07 -1.7599965076442459e-06 1.5786756193847395e-05" pbc="F F F"
C       -0.04972968      -0.10115488      -0.04860762        0       0.46512632       0.34628804       1.16558802       0.41113746       1.47167921       1.60466540
O       -1.11967514      -0.59246516      -0.18656454        0      -0.79127927      -1.14155162      -0.13743171      -0.60224009      -0.76350141      -0.46831852
O        0.46286921       0.19969055       1.20267838        0       0.54873928       1.05426284       1.86026276      -0.15529898      -0.89157546      -0.18544759
O        0.72468576       0.43790194      -0.99730413        0      -0.52113692      -1.05394404      -0.92439089      -0.22187507      -0.37466455      -1.05693197
C       -0.08197061      -0.49179129       2.36779377        0       0.74807332      -1.20039488      -0.50193747      -0.52664912      -1.42287993      -2.32688761
C        0.09557949       0.55343581      -2.31780420        0      -0.56095714       0.93223642      -0.79007017       1.69003320      -0.63076633      -1.14223981
H        0.68469657      -0.92586508       2.94512723        0      -0.17210457      -0.31163515       0.07015704       1.31229138      -0.32795101       0.31778026
H       -0.68321336       0.03954186       3.02717756        0       0.00458720       0.14682363      -0.13267473      -0.83688390       1.89929676       0.67944312
H       -0.75766126      -1.32554059       2.05992984        0       0.01241596       0.24722390      -0.36980991       0.47948587       0.33894965      -0.32943255
H        0.60606523       1.21821904      -3.01682222        0       0.30176936       0.49901823      -0.25872405       0.98277146       0.71084511       0.85902286
H        0.09913971      -0.31174253      -3.05170078        0       0.22721856       0.60153857      -0.00499661      -0.46071333      -0.13033485       1.87619472
H       -0.81336034       1.03478553      -2.18185333        0      -0.26245199      -0.11986586       0.02402776      -2.07205939       0.12090211       0.17215177
12
Properties=species:S:1:pos:R:3:molID:I:1:momenta:R:3:forces:R:3 Nmols=1 Comp=DMC(1) energy=-589.2430419921875 free_energy=-589.2430419921875 stress="-2.598721266622306e-06 2.2045229641776132e-08 8.080027328105643e-06 2.2045229641776132e-08 2.3510037863161415e-06 6.375370503519662e-06 8.080027328105643e-06 6.375370503519662e-06 5.752614470111439e-06" pbc="F F F"
C       -0.06429945      -0.06850096       0.03437045        0      -0.97068128       0.39303204       0.48826856      -0.49850953       0.55934036      -1.26488543
O       -1.12579741      -0.63817014      -0.16990061        0       0.81880866       0.04180283       0.82686513       1.58711076       0.81024915       0.89062470
O        0.49774537       0.24009968       1.29638854        0       0.93922310       0.60483764       0.63505145       0.25962937      -0.99326175      -4.49617481
O        0.66138358       0.39306163      -1.02927905        0      -1.17239750      -0.65599302      -0.10347346       0.35639450       0.63685155       1.89716494
C       -0.05556059      -0.61490338       2.23826552        0      -0.59540659      -1.72259522      -2.09337723      -1.84095120       0.19783390      -0.37809598
C        0.11063984       0.70253542      -2.35849005        0       0.62713499       1.03584960       0.28940754      -1.44161820      -5.71035337       2.74519873
H        0.64579302      -1.16994102       2.80782993        0       0.07159650       0.04904457      -0.39917754       0.83878142      -0.30486390       0.46683380
H       -0.56698740       0.15922105       2.79087683        0       0.21838818      -0.25763500      -0.17595364      -0.86702472      -0.68801355       1.34246683
H       -0.73747949      -1.30647351       1.65549554        0      -0.04208733      -0.08934377      -0.28816682       0.43827918       0.60435349       1.05142283
H        0.60826753       1.52613645      -2.59399833        0      -0.06027387       0.54717948       0.56198109       1.95002031       2.88169980      -1.63486123
H        0.27527760      -0.30998015      -2.85418935        0      -0.04093110       0.25970100       0.43747209       0.00178878       1.67945194      -0.39097279
H       -0.94474673       0.81197651      -2.21860357        0       0.20662634      -0.20588010      -0.17889718      -0.78390074       0.32671261      -0.22872150
12
Properties=species:S:1:pos:R:3:molID:I:1:momenta:R:3:forces:R:3 Nmols=1 Comp=DMC(1) energy=-589.19970703125 free_energy=-589.19970703125 stress="-1.797287382032664e-06 -2.7169818395123e-07 1.3393957942753332e-06 -2.7169818395123e-07 1.3489318462234223e-06 5.019614036427811e-06 1.3393957942753332e-06 5.019614036427811e-06 3.7438710478454595e-06" pbc="F F F"
C       -0.09036272       0.00116222       0.01100137        0       0.79595736       1.47937676      -0.52243847      -0.88934374      -0.94264579       0.64987069
O       -1.10534474      -0.63661345      -0.11430398        0      -0.55107718       0.09672886       0.71182349      -0.50095534       0.50205910      -0.42117471
O        0.50529646       0.26288515       1.20893632        0      -0.95202266      -0.33060867      -2.40046124      -1.95137691      -1.94435990       0.54294634
O        0.63468878       0.34732461      -0.99198637        0       0.04138485      -0.64056062       0.90141023       2.10202599       1.70380735      -0.89795172
C       -0.10212683      -0.71344411       2.15605496        0      -0.06875716      -0.70548099       0.10612528       0.69722402      -1.12784421       0.30283260
C        0.16641335       0.78299513      -2.24018103        0      -0.13987424       0.49119896       1.70322365      -2.22816610      -4.71294117      -1.45060635
H        0.74209482      -1.26949553       2.59774336        0      -0.09026748       0.00607249      -0.30721319       0.13412100       0.01440671      -0.42447999
H       -0.58998867      -0.35831164       3.08422015        0       0.08528813      -0.70506149       0.10034217      -0.17041847       0.79822314      -0.98297954
H       -0.76885992      -1.48431544       1.59704666        0       0.06100675      -0.28476188       0.09466359       1.03626776       1.48338020       1.04885888
H        0.53686920       1.65923478      -2.53339724        0       0.11269707      -0.05875594      -0.30810360       2.12818313       3.24227881      -0.73699152
H        0.40984664      -0.02762925      -3.09976456        0       0.30648818       0.54622403      -0.19800531      -0.31911778       1.46867633       1.91114891
H       -0.92343659       0.92983844      -2.29543195        0       0.39917670       0.10562849       0.11863339      -0.03844351      -0.48503977       0.45852619
12
Properties=species:S:1:pos:R:3:molID:I:1:momenta:R:3:forces:R:3 Nmols=1 Comp=DMC(1) energy=-589.3475341796875 free_energy=-589.3475341796875 stress="2.38360871662735e-06 -2.1503569769265596e-06 -1.4041866052139085e-05 -2.1503569769265596e-06 1.449906335437845e-06 1.3909159406466642e-06 -1.4041866052139085e-05 1.3909159406466642e-06 -5.3693515837949235e-06" pbc="F F F"
C       -0.15115386       0.03839376      -0.00790913        0      -2.04794516       0.07121155      -0.49250010       2.62277770      -0.37418801      -0.36701584
O       -1.13976570      -0.58591229      -0.08881839        0      -0.34830682       1.37695874       0.11773438      -2.73617196      -0.46735400      -2.19744968
O        0.41735218       0.21238638       1.15202474        0      -1.63108732      -1.45539024       0.33728513       0.04810543      -0.39029005       2.54393363
O        0.72986442       0.37481480      -1.00666761        0       2.32060244       0.93635842      -0.14408760      -0.67862135      -0.23932855       2.58335853
C       -0.05512339      -0.79848513       2.15326905        0       1.58446041      -1.26766590       0.10739624       1.33892298      -0.36590898      -0.93314219
C        0.16275448       0.79811304      -2.16526193        0      -0.22054923       1.24940479       0.02306992       0.89673859      -0.34394065      -2.85408306
H        0.92110318      -1.36211757       2.28828616        0       0.07266418       0.03992495      -0.02546067      -1.14223671       0.65059644       0.94828629
H       -0.62495956      -0.39443258       3.02608315        0       0.39397832       0.49384570      -0.25992565       1.05796397       0.01727629      -0.75145936
H       -0.70444501      -1.51173201       1.60707466        0      -0.15213171      -0.36961264      -0.37446359       0.11604029       0.49130094       0.40159410
H        0.64551346       1.75912725      -2.37068757        0      -0.23709177      -0.17337071       0.61615282      -0.66229188       0.39201123      -0.07546199
H        0.61994725       0.14782040      -3.02852894        0       0.14812686      -0.51175933       0.02365174      -1.38084674       0.64457101       1.21754718
H       -0.93753113       0.81681694      -2.08632169        0       0.11727990      -0.38990538       0.07114746       0.51961994      -0.01474578      -0.51610810
12
Properties=species:S:1:pos:R:3:molID:I:1:momenta:R:3:forces:R:3 Nmols=1 Comp=DMC(1) energy=-589.1021118164062 free_energy=-589.1021118164062 stress="8.943383363657631e-06 -1.4016826526130899e-06 -1.24473592677532e-06 -1.4016826526130899e-06 4.6033264879952185e-06 -1.1207681609448628e-06 -1.24473592677532e-06 -1.1207681609448628e-06 -2.813905894072377e-06" pbc="F F F"
C       -0.16816747       0.07901576      -0.01659957        0       0.64252973       0.16962397       0.12303914      -1.01071453      -3.33314848      -0.22515059
O       -1.26019311      -0.51497069      -0.12898670        0      -2.34075948       1.61065005      -1.44180609       2.59874940       2.27814198      -1.48644710
O        0.33157412       0.12807017       1.20174479        0      -0.52829379      -1.10260284       0.52494030       2.77918577       1.78778124      -1.36732364
O        0.81540537       0.38635619      -0.96765651        0      -0.24091245       0.52449128       1.81567321      -2.76263523       0.42964524       0.62118852
C        0.07535944      -0.88071710       2.10369061        0       2.20956972      -0.39039633      -0.34469898       1.74853158       0.62462687       2.54464340
C        0.20160593       0.82752263      -2.19190867        0       0.55888298       0.28399001      -0.48345339      -0.85090405      -0.10602677       0.14729863
H        1.02118152      -1.43572848       2.56634655        0      -0.07788917      -0.25340199       0.35528601      -1.59094608       1.03793728      -1.40591431
H       -0.28383214      -0.21560629       2.88188215        0       0.10740785      -0.38000174       0.17596208      -0.55407840      -0.84162450       1.19169998
H       -0.63376304      -1.49892860       1.67412647        0      -0.26995052      -0.40745675       0.05937826      -1.32322931      -1.65018630      -0.27099010
H        0.31276865       1.93965731      -2.30281845        0      -0.45330904      -0.24969788      -0.28648927       0.30808431      -1.13511801      -0.18891603
H        0.46041312       0.17963096      -3.04986643        0       0.28202275       0.08898726      -0.59921872       0.62278855       0.66778862       0.39093420
H       -0.87709070       0.62579252      -2.07331457        0       0.11070171       0.10581483       0.10138746       0.03516918       0.24018276       0.04897681
12
Properties=species:S:1:pos:R:3:molID:I:1:momenta:R:3:forces:R:3 Nmols=1 Comp=DMC(1) energy=-589.6365966796875 free_energy=-589.6365966796875 stress="5.047702416050015e-06 -2.911687943196739e-06 -1.2686955415119883e-06 -2.911687943196739e-06 1.2294427733650082e-06 -6.5379190345993266e-06 -1.2686955415119883e-06 -6.5379190345993266e-06 7.180571628850885e-06" pbc="F F F"
C       -0.20517188      -0.01063668      -0.01549437        0      -1.39090017      -1.83482022       0.49686857       1.12373781       0.60879946       0.47200456
O       -1.32796183      -0.35686842      -0.22534416        0      -0.29803576       3.18968047      -1.83514787       0.46001410      -0.06964248      -0.13799781
O        0.38137062       0.09142610       1.20971328        0       1.35577748      -0.69024098      -0.04540426       0.16894747      -0.66121471      -0.12631702
O        0.74219093       0.42887817      -0.88961979        0      -2.32142154       1.15686853       0.30373573      -1.60380387       0.78672290      -1.40832090
C        0.17538396      -0.94498324       2.14701092        0       0.44545569      -1.02014029       1.42962544       1.79118407       0.85050094       2.29990697
C        0.21452981       0.80992924      -2.21092634        0       0.18182265      -0.03277701       0.02121774      -0.82131588       1.30753469       0.40195066
H        1.13787746      -1.51701286       2.39246888        0       0.70699745      -0.04624802      -0.54390956      -0.86944938       1.09542334      -0.43468004
H       -0.25110021      -0.57566432       3.12112171        0       0.31718248       0.00463130       0.06778136       0.59526300       0.21768022      -0.86082524
H       -0.48349148      -1.65520670       1.83667359        0       0.06157193      -0.29855059       0.01720266      -1.98599505      -1.85903192      -1.32738256
H        0.26300179       1.91976534      -2.53128464        0       0.22024940      -0.05498980       0.19835085      -0.02738237      -1.04628170       1.54592586
H        0.79688592       0.41871392      -3.02171469        0       0.56937062      -0.20091948       0.18214810       0.12912768      -1.19082272       0.05063462
H       -0.87921917       0.54986408      -2.18387444        0       0.15193014      -0.17249388      -0.29246872       1.03967261      -0.03966773      -0.47489896
12
Properties=species:S:1:pos:R:3:molID:I:1:momenta:R:3:forces:R:3 Nmols=1 Comp=DMC(1) energy=-588.55859375 free_energy=-588.55859375 stress="-1.8330908915231703e-06 1.64099003541196e-06 2.677858219612972e-06 1.64099003541196e-06 2.2791593892179662e-06 4.450474534678506e-06 2.677858219612972e-06 4.450474534678506e-06 -5.052353571954882e-06" pbc="F F F"
C       -0.19776677      -0.06447272       0.03907934        0       0.18871508       0.73981509       0.41361084      -3.82716441       2.13560438      -3.07336903
O       -1.38209708      -0.17764991      -0.33085302        0      -0.74986583       2.31433083      -0.81625406       1.96494043      -1.22801507       2.28949094
O        0.42627209       0.01090001       1.17623013        0      -0.01741956      -2.21899235      -0.77656997      -1.35382783      -1.39893103       0.79485667
O        0.57100325       0.49552587      -0.89833975        0      -2.56629226       0.94040618       0.84733715       2.41455889      -1.06794238       3.23957872
C        0.25211658      -1.07418033       2.24159134        0       1.14067382      -1.17412816       0.76574105       2.58429003       4.17764187      -0.81085539
C        0.26243411       0.79262812      -2.18723168        0       0.58057320      -0.02823323       0.21714971      -1.25783384       0.74522847      -0.99372321
H        1.27766232      -1.29249698       2.09015276        0       0.53563371      -0.12504685       0.06554114       1.23937464      -1.66404390       1.11469483
H        0.16689106      -0.48414358       3.15666078        0       0.40875831      -0.01075089      -0.18849152      -0.59615004      -0.53966713      -0.10525313
H       -0.37603758      -1.81578094       1.94893256        0       0.07296898      -0.09684809       0.24000577      -1.97646892      -1.56693578      -0.46841592
H        0.42007193       1.92631396      -2.07577321        0       0.14610181      -0.11855663      -0.05208219      -0.48475662      -1.43810475      -1.89811742
H        0.98440741       0.18714854      -2.72066676        0       0.18431583      -0.10998144      -0.08660625       0.47954836       0.77837050      -0.90001249
H       -0.74579503       0.39244323      -2.55646713        0       0.07583703      -0.11201452      -0.62938163       0.81348860       1.06679428       0.81112480
12
Properties=species:S:1:pos:R:3:molID:I:1:momenta:R:3:forces:R:3 Nmols=1 Comp=DMC(1) energy=-588.7025146484375 free_energy=-588.7025146484375 stress="-2.683949969650712e-05 -5.405444426287431e-06 3.667742475954583e-06 -5.405444426287431e-06 5.967028755549109e-07 -4.840861492994009e-06 3.667742475954583e-06 -4.840861492994009e-06 8.734979928703979e-06" pbc="F F F"
C       -0.32358062       0.02049314       0.00604207        0      -2.41097663       1.08316998      -0.12814344       4.44526243      -0.06725848       2.38213491
O       -1.40642276      -0.08649340      -0.29982498        0      -1.59320017       0.63932524       0.98290385      -7.63305855      -1.88407135      -0.22652045
O        0.40388160      -0.15354032       1.14652294        0      -0.65276015      -3.14788470      -0.00257134       0.73658627      -0.25300184      -0.25509304
O        0.49305030       0.54749221      -0.82728558        0       0.85804730       1.08595440       0.02988671       4.09127522       1.89124227      -2.46209431
C        0.44370685      -1.11421801       2.24545056        0       2.39515074       0.18672938      -0.37923732      -2.78903818       3.52729321       0.69367051
C        0.32128938       0.77405162      -2.24455753        0       1.48444919       0.43514236      -1.05377377      -0.79288566       2.81204653       0.22097057
H        1.29917752      -1.64091324       2.42401240        0      -0.11410034      -0.33755559       0.49047306       2.49213362      -0.61712861      -0.24759962
H        0.19763542      -0.46564801       3.15105587        0      -0.05840314      -0.12032630      -0.05935646       0.63347828      -0.67396390      -0.82667309
H       -0.33927137      -1.79243442       2.22730151        0       0.25603763       0.30565507       0.28033237      -1.72252584      -1.33857977      -0.59402239
H        0.49370428       1.89774367      -2.58351691        0      -0.07702212       0.07855359      -0.35071090      -0.79236186      -1.44981480       1.45916414
H        1.15190717       0.39696282      -2.73144559        0       0.50022804      -0.03659723       0.10807487       1.41545677      -1.62963498      -0.69682473
H       -0.61957392       0.47719008      -2.69873432        0      -0.58745007      -0.17216615       0.08212235      -0.08432102      -0.31712797       0.55288750
12
Properties=species:S:1:pos:R:3:molID:I:1:momenta:R:3:forces:R:3 Nmols=1 Comp=DMC(1) energy=-588.4100952148438 free_energy=-588.4100952148438 stress="5.40281735084136e-06 5.81595145376923e-07 3.225859472877346e-06 5.81595145376923e-07 -2.911083925027924e-07 -5.101762781123398e-06 3.225859472877346e-06 -5.101762781123398e-06 9.461760782869533e-06" pbc="F F F"
C       -0.36783908       0.05887287       0.03806968        0      -0.53163747       0.06025365       0.27732581      -2.55371666      -0.67033058      -1.78153431
O       -1.60610997      -0.08322953      -0.21884219        0      -2.12230498      -0.05273856       1.67523638       5.32657480       0.53110981       1.24349928
O        0.37900093      -0.31740612       1.10660903        0       0.18894192      -1.76798108      -1.73121930       1.19739723       2.20729828      -2.15027189
O        0.56823457       0.65852178      -0.86439089        0       0.61964453       1.99433692      -1.07419048      -0.67695129      -0.70129609       2.22625113
C        0.50848570      -1.08594884       2.24353818        0      -0.67096806      -0.51476698       0.50716589      -1.87091494      -0.55378360       2.26211071
C        0.45212286       0.80400128      -2.32095173        0       1.90104549      -0.45402513       0.26981626      -1.85850286       2.99208140       4.02549219
H        1.43934254      -1.59729203       2.46705310        0      -0.10593893       0.57128935      -0.39879859       0.41488886       0.25062373      -1.13705778
H        0.37251242      -0.49420979       3.20505643        0       0.33267048       0.16972254       0.06778977      -0.24239290      -0.12092686      -1.27579629
H       -0.26585067      -1.84431441       2.21498445        0       0.56947098       0.06604344      -0.06482471      -0.31122112      -0.42024240       0.29177183
H        0.38832629       1.89205118      -2.49484481        0       0.15603721       0.39338911       0.32652233       0.39367363      -0.61499888      -0.31156111
H        1.19246802       0.25749111      -2.68387296        0      -0.26329979       0.01142183      -0.02245501       3.34451342      -1.66241503      -1.94834387
H       -0.44054783       0.34806012      -2.44009282        0      -0.07366084      -0.47694509       0.16763165      -3.16334724      -1.23711991      -1.44455969
12
Properties=species:S:1:pos:R:3:molID:I:1:momenta:R:3:forces:R:3 Nmols=1 Comp=DMC(1) energy=-588.7005615234375 free_energy=-588.7005615234375 stress="1.920219574458315e-06 -5.441174266707094e-07 -6.979028512432706e-06 -5.441174266707094e-07 1.2605923984665424e-06 -4.397074008011259e-06 -6.979028512432706e-06 -4.397074008011259e-06 1.1836130397568922e-05" pbc="F F F"
C       -0.46053234       0.06291538       0.01852105        0       0.35262114       0.15692438      -0.35454265       5.50731945       0.04008478       0.63266647
O       -1.60270814      -0.10184157      -0.08816667        0       0.76438025      -0.89202080       2.39092552      -1.36869502       0.17029299      -0.65032285
O        0.42192624      -0.36382808       0.96624485        0       0.41513968       0.13367247      -2.64314773      -0.99667788       0.41799343      -0.49326947
O        0.57013282       0.73594046      -0.84935522        0      -1.29239868      -0.03542099       1.26661799      -2.14237309      -1.08764100       0.82877004
C        0.46841532      -1.10023133       2.26225662        0       0.44351037      -0.23623558      -0.92135135       1.73411679       1.52899849      -1.58743906
C        0.48097672       0.78257205      -2.25794023        0      -0.29866909      -0.92688272       0.96221784       1.03498745       0.41105610       0.10669160
H        1.57577950      -1.31273196       2.07392744        0      -0.44981530       0.10510348      -0.20515863      -1.45151317      -0.18729171       1.38639021
H        0.32812528      -0.35160113       3.07557422        0      -0.30600056       0.21129751       0.05332246       0.00757776      -0.85222948      -0.63083315