12
Properties=species:S:1:pos:R:3:molID:I:1:momenta:R:3:forces:R:3:charge:R:1 Nmols=1 Comp=DMC(1) energy=-589.6902849308997 free_energy=-589.6902849308997 dipole="0.04765691014857938 0.06870959653949074 0.2117222301694792" pbc="F F F"
C       -0.06354920       0.02615914       0.03273994        0       0.51512482      -0.49858937       1.18694442      -1.10480465      -1.74935772      -2.56668991       0.47127016
O       -1.09745824      -0.56171083      -0.33384407        0      -0.60216685       0.49526390       0.57912886       1.82966510       1.39045630       2.85528675      -0.46883014
O        0.59339279       0.04178514       1.16893291        0      -0.40723132       0.41994805       0.05096541      -0.82852780       0.42618089       0.49198597      -0.23200909
O        0.70731479       0.58054012      -0.92796504        0      -0.88117016      -0.35679765      -0.85741634      -0.37199226      -0.70811741      -0.28837154      -0.25090475
C       -0.18480919      -0.38314587       2.27627182        0       0.11583750      -0.19548412      -0.61367176      -0.57910020       1.05533883       1.25905931       0.02408755
C        0.11790480       0.31317315      -2.18905210        0       0.83846235       1.04627642      -0.21940653      -1.94280044       1.45788527      -1.67289732       0.03147711
H        0.50081283      -0.52887988       3.16355896        0       0.22432011      -0.07930995       0.18189992      -0.82243213      -0.17215393      -1.20744938       0.08322969
H       -0.99130619       0.37122315       2.57026887        0      -0.12046956      -0.02629839       0.01236940       1.19574539      -0.26180058      -0.29331200       0.05368733
H       -0.79898220      -1.19689691       1.93909299        0       0.05323447      -0.08582981      -0.00220434       0.14298628      -1.04896365       0.29163103       0.08471066
H        0.82173383       0.39293513      -3.04121518        0      -0.11215883      -0.17620228      -0.07282783      -0.07668032      -0.15544425       0.93178879       0.06977969
H       -0.51975018      -0.63449883      -2.23208618        0       0.15741358      -0.01991166      -0.14343219       1.35192819       0.97979173       0.12089941       0.08751433
H       -0.68493521       1.15580308      -2.35394812        0       0.21880388      -0.52306513      -0.10234901       1.20601285      -1.21381549       0.07806889       0.04598747
12
Properties=species:S:1:pos:R:3:molID:I:1:momenta:R:3:forces:R:3:charge:R:1 Nmols=1 Comp=DMC(1) energy=-589.9818846012079 free_energy=-589.9818846012079 dipole="0.06368010315540767 -0.030766022525905233 0.05869585969852163" pbc="F F F"
C       -0.09305773      -0.02864133      -0.01143952        0       0.20557619      -0.63973295      -1.47052499       3.23085683       1.55485669       0.67677780       0.48647871
O       -1.12391545      -0.51541528      -0.23781467        0      -0.67264747       0.77179174       2.10746170      -2.74712865      -1.42267384       0.14837062      -0.41345907
O        0.55618229       0.07436861       1.17816919        0      -0.86656750       0.59266636      -0.09407164      -0.30910745      -0.05869292      -1.47786891      -0.27549970
O        0.68610294       0.52783586      -0.95649668        0       0.11759509      -1.29806454       0.21377953       0.32325557       0.24531348       0.49545241      -0.26823008
C       -0.16447022      -0.40593649       2.28099733        0       0.00611915      -0.19337916       0.22495026       0.72945220       1.49452581       1.16208108       0.03080747
C        0.15311621       0.36974651      -2.24471897        0      -0.13879317       0.52869344      -1.50659177      -0.04794589       0.40791505      -1.51586508       0.03545667
H        0.61101343      -0.53578554       3.05557668        0       0.53245446      -0.02098329       0.24322843      -0.40491322       0.45269874       0.05604408       0.07411812
H       -0.92056721       0.37995534       2.54116185        0      -0.14241248       0.08534292       0.05300237       0.38439359      -0.97543257       0.13963121       0.06225573
H       -0.54480146      -1.37246017       2.12573783        0       0.38777124      -0.14770983       0.14508735      -1.04097349      -1.05370915      -0.48074095       0.07027244
H        1.01327055       0.36615477      -2.99423065        0       0.32474626       0.24672846       0.12661568      -1.00728624       0.50562288       0.96855043       0.06750852
H       -0.23230545      -0.67476687      -2.26442718        0       0.00295366       0.00822379      -0.05315478      -0.55460956       0.89241161      -0.43553474       0.07177084
H       -0.63066510       1.24257911      -2.46805384        0       0.24320457       0.06642306       0.01021786       1.44400631      -2.04283577       0.26310205       0.05852034
12
Properties=species:S:1:pos:R:3:molID:I:1:momenta:R:3:forces:R:3:charge:R:1 Nmols=1 Comp=DMC(1) energy=-589.7235198568816 free_energy=-589.7235198568816 dipole="0.18583515775795464 0.03318273431152784 -0.10893933480016911" pbc="F F F"
C       -0.04192279      -0.04643430      -0.04863332        0      -0.77909980      -0.61517991       0.78450330      -3.63609183      -0.77099055       1.85659529       0.48151272
O       -1.18300958      -0.50636770      -0.11563231        0      -0.28797974       0.24515337       1.87739800       1.81889610       0.37929480      -0.85067159      -0.48958595
O        0.50468916       0.13292914       1.14875269        0      -0.56415020       1.22494632      -0.63581760       0.91644353       0.33285436       1.12327421      -0.26665250
O        0.70370490       0.45558792      -0.96981975        0       0.46025078      -1.07369764      -0.85054874       0.06948182      -0.06548323      -2.50067093      -0.24301190
C       -0.10616896      -0.41825300       2.33600998        0       0.42420415      -0.32640937       0.42893873      -2.05422654       0.03021607      -1.48455871       0.02339674
C        0.19278220       0.37855482      -2.35586286        0       0.62883983      -0.11152894      -0.88555337      -1.22751754       2.35540818       0.41488535       0.02002521
H        0.59441112      -0.37251733       3.12154882        0       0.35721802       0.35430102       0.32642358       0.75840053      -0.20556941       0.50201521       0.08757602
H       -1.07548481       0.02741362       2.65941639        0      -0.31798676      -0.27111617      -0.01860289       0.73828130       0.95455764      -0.34224460       0.06334543
H       -0.53750046      -1.37542092       2.06572914        0       0.02524898       0.16451579      -0.10859697       0.77083011      -0.89381986       0.09027937       0.07651078
H        1.08076112       0.62688231      -2.99574886        0       0.20629176       0.09411818      -0.38402743      -1.08162414      -0.77374449       0.54712382       0.09485816
H       -0.47942258      -0.46703020      -2.54798980        0      -0.13371550       0.15633740      -0.46589304       1.15060927      -0.42267439       0.12822194       0.09354478
H       -0.63074664       1.22535023      -2.52228435        0      -0.01912152       0.15855993      -0.06822358       1.77651740      -0.92004913       0.51575065       0.05848051
12
Properties=species:S:1:pos:R:3:molID:I:1:momenta:R:3:forces:R:3:charge:R:1 Nmols=1 Comp=DMC(1) energy=-589.7066397185865 free_energy=-589.7066397185865 dipole="0.09449801037224348 -0.04304135193427581 0.012659425265955284" pbc="F F F"
C       -0.12290839      -0.06913319       0.02226412        0       0.02094273       0.99437078       0.40942613       2.10030971       1.88812180      -1.21313861       0.48315792
O       -1.21025180      -0.51582457      -0.02811583        0      -0.76982767      -0.68587350       1.24757864      -1.06003646      -0.75396378      -0.70854330      -0.40954968
O        0.52820783       0.22150529       1.15116597        0       0.67766050       0.99539888       0.22212264      -0.28172099      -1.04408341       0.60255952      -0.27939747
O        0.69223531       0.37040944      -1.04094399        0      -1.52579300      -2.08371453      -0.76614442      -0.74828415      -0.57452744       0.64123202      -0.31102281
C       -0.09851514      -0.44414546       2.34070579        0       0.06112854      -0.18849008      -1.32749529       0.95438697      -0.42152145      -3.07576624       0.01097721
C        0.20201036       0.44344609      -2.42102408        0       0.06759356       0.54616498       0.09063348       1.00034546      -0.34126511       0.65267182       0.02472598
H        0.58534846      -0.30784380       3.10481579        0       0.29910866      -0.17278706       0.15322680       1.42587611       0.12116458       1.39472421       0.09151808
H       -0.96029128       0.11977130       2.54135044        0       0.05854050       0.28895821      -0.23705756      -1.48678469       0.07854161       0.21744809       0.09082286
H       -0.19203573      -1.52147160       2.05218852        0       0.57146097       0.14611061       0.21793027      -0.44176295       0.94568904       0.53165694       0.07977174
H        1.05131428       0.46065194      -3.15358380        0       0.29319887      -0.10516563      -0.14478361      -0.04893731       0.68021719       1.12194522       0.06898175
H       -0.17695086      -0.54701445      -2.69337892        0       0.25064207      -0.13612888       0.12835364      -1.23857093       0.55285169       0.30222153       0.07304849
H       -0.36484269       1.39635649      -2.45901401        0      -0.00465574       0.40115623       0.00620928      -0.17482077      -1.13122473      -0.46701119       0.07696593
12
Properties=species:S:1:pos:R:3:molID:I:1:momenta:R:3:forces:R:3:charge:R:1 Nmols=1 Comp=DMC(1) energy=-589.4920032401122 free_energy=-589.4920032401122 dipole="0.16644806533512224 0.20344021556458702 -0.0844443993380476" pbc="F F F"
C       -0.16603921       0.03497590       0.01269891        0      -1.11973146       0.56052534      -0.76077969      -0.63782059      -2.24849376      -0.50704401       0.47184683
O       -1.23652790      -0.55183087       0.01784526        0       0.24377777       0.00937760       0.63121475       1.15919785       1.44491274      -0.49428120      -0.43994532
O        0.55312906       0.21843516       1.13733405        0       0.26242894      -0.62848296      -0.82857474       0.55335144      -0.09931381      -1.62581296      -0.24596861
O        0.62538661       0.27084563      -1.05274760        0      -0.79013704      -1.30205231       0.87235160       0.44930629       0.70300892       1.66622771      -0.26590593
C        0.01538264      -0.38690296       2.25432756        0       2.07723280       1.10545981      -0.62910792      -2.10089353      -2.39608172      -0.57390659       0.03613154
C        0.23307399       0.45404046      -2.38789873        0       0.51740237      -0.64879181       0.97572182      -2.11291355      -2.00763796       1.07660128       0.02460275
H        0.59530823      -0.15971221       3.03911314        0      -0.04634523       0.43753334      -0.18414081       2.66075182       0.78503281       2.75687317       0.07935750
H       -0.90074783       0.10792700       2.46357482        0      -0.31033120      -0.28989642      -0.04613713      -1.50326809      -0.00876522       0.14714682       0.06436878
H       -0.14268959      -1.56058605       2.31313806        0      -0.24074519       0.25045520      -0.08761669       0.27321245       2.08351626      -0.95238042       0.04942746
H        1.13187532       0.50731789      -2.91704798        0       0.14180157       0.01619113       0.15836922       0.92858830      -0.23158411      -1.01638076       0.09596798
H       -0.53330097      -0.31272570      -2.64461435        0      -0.51093509       0.25158645      -0.09523951       1.00567535      -0.46692465      -0.34296431       0.06507982
H       -0.37731332       1.28438295      -2.49248888        0      -0.22441825       0.23809462      -0.00606088      -0.67518773       2.44233050      -0.13407871       0.06503721
12
Properties=species:S:1:pos:R:3:molID:I:1:momenta:R:3:forces:R:3:charge:R:1 Nmols=1 Comp=DMC(1) energy=-589.600810371044 free_energy=-589.600810371044 dipole="0.16162479587941517 0.21535322360642808 -0.1473342995920789" pbc="F F F"
C       -0.19197596       0.00437278      -0.00621081        0       0.40589293      -1.42263896       0.51964187       0.76025384      -1.15417732       0.99252658       0.49056378
O       -1.24588129      -0.53137936       0.03558609        0      -1.51299113       0.06841092      -0.30128370      -1.59183569      -0.04151414      -0.22961793      -0.44850608
O        0.59648630       0.19679080       1.05504897        0       1.29226417      -0.16691048      -1.36222957       0.02175385       0.63466994       0.38038961      -0.28026867
O        0.58004596       0.23821594      -1.00634209        0      -0.26756030       0.38896924       0.10569219       1.50471595       0.48082313      -1.17673535      -0.25505990
C        0.09861316      -0.31695344       2.26561108        0       0.15833827       1.27941527       1.31724866      -0.89094692      -2.53634780      -1.30046015       0.02520571
C        0.16583466       0.44966701      -2.33543335        0      -1.37916767       0.60925703       0.29763417      -0.84587923      -1.07125466       0.61399469       0.02035809
H        0.74162747       0.11423197       3.00025152        0      -0.00572707      -0.31707639      -0.48138989       0.34486693      -0.72982753       0.63684724       0.09202310
H       -0.92339706      -0.05523844       2.41049107        0       0.39657982       0.25760699      -0.07461707      -0.89503479       0.92650611       0.27601172       0.06587451
H       -0.09691816      -1.49466763       2.05186465        0       0.64032591      -0.22297720      -0.09077364       1.31743231       1.98751639       1.18060679       0.05622895
H        1.04686070       0.40390035      -2.89264338        0      -0.25810262      -0.21363768      -0.01904586       1.40403844      -0.50577629      -1.07021357       0.08694751
H       -0.58572572      -0.27631397      -2.68278508        0      -0.05384271      -0.34246071      -0.02878527       0.11136158       0.38063276       0.19935377       0.07236318
H       -0.11892361       1.45280071      -2.34912275        0       0.58399039       0.08204198       0.11790811      -1.24072628       1.62874941      -0.50270341       0.07426983
12
Properties=species:S:1:pos:R:3:molID:I:1:momenta:R:3:forces:R:3:charge:R:1 Nmols=1 Comp=DMC(1) energy=-589.1853811333834 free_energy=-589.1853811333834 dipole="0.22895131989063322 0.011293470933314413 0.08916887967684581" pbc="F F F"
C       -0.18533716      -0.16389100       0.04270852        0      -0.51333131      -2.22260004       0.39435010      -0.82809607       1.79872174      -2.21024359       0.47151941
O       -1.35664399      -0.51285359       0.03181305        0      -0.76754003       1.00485392      -0.11167001       2.98735634       0.38084379       0.19512540      -0.41928874
O        0.65905957       0.18436004       1.00601040        0       0.56332734      -0.62878739      -0.02454971      -1.42998028      -1.67846165       1.40305580      -0.23599881
O        0.57667136       0.28988590      -1.03182738        0      -0.65812830       0.58343214      -0.72694785      -1.19127265      -0.94133097       0.93638231      -0.28713727
C        0.16725051      -0.26059128       2.27112510        0       2.23048286       1.60448436       0.14994274       4.45704407      -0.47819564       2.74675034       0.01597728
C        0.08726707       0.46935795      -2.33461550        0      -0.08582243       0.12089874      -0.77011006       0.17003086      -2.00719099       0.21403533       0.02662000
H        1.00470739       0.04208960       3.05225081        0      -0.24933642       0.17560992      -0.15275671      -1.34198921       1.00969821      -1.17973017       0.05785063
H       -0.74060904       0.23809129       2.52904332        0       0.58028069      -0.22618119       0.34764880      -0.60226189      -0.61191729       0.13119595       0.09112628
H        0.47494153      -1.33529639       2.53781903        0       0.06955705      -0.26375961       0.76521487      -2.02264412       0.60147558      -1.36940649       0.07457880
H        0.90593245       0.14728364      -2.92507033        0      -0.33824903      -0.17897091       0.16333512       1.00481484      -0.06686496      -0.98624242       0.07224063
H       -0.72762440      -0.17940681      -2.63371091        0      -0.42177795       0.24524803       0.24523807      -0.56776711      -0.02532560       0.46031413       0.06040153
H       -0.11232855       1.46973339      -2.49531824        0      -0.40946247      -0.21422796      -0.27969536      -0.63523477       2.01854779      -0.34123659       0.07211026
12
Properties=species:S:1:pos:R:3:molID:I:1:momenta:R:3:forces:R:3:charge:R:1 Nmols=1 Comp=DMC(1) energy=-589.190173817943 free_energy=-589.190173817943 dipole="0.1583240736948386 0.0208913457001489 -0.007687500478244295" pbc="F F F"
C       -0.19184506      -0.22456643      -0.00663340        0       1.03585210       0.83848103      -1.27905576       1.10227945       2.85484736      -0.00957554       0.48451995
O       -1.34036796      -0.50955553       0.03402695        0       0.26863812      -0.89622951       0.15375860      -0.33399509      -0.94672370      -0.10904242      -0.41655894
O        0.63901835       0.08826915       1.01302482        0      -0.96997923      -2.78889400       0.15088411       0.44394694      -0.77469445       0.20651675      -0.27217686
O        0.51770774       0.31231779      -1.03769860        0      -1.43646877       0.11628882       0.24177362       0.63801043      -0.28358111      -0.96213442      -0.28379872
C        0.37941238      -0.16714110       2.39786959        0       1.88644670       1.94912132       2.18103679      -2.72076485       2.89509087      -0.16611806       0.02143004
C        0.04204675       0.46501865      -2.40818171        0      -1.03432881       0.38642579      -0.62670055      -1.23776170      -0.79277959       1.60648521       0.01974336
H        1.05769728       0.59555131       2.99348145        0       0.01994687       0.31213352      -0.21443970      -1.18442393      -2.28826670      -1.02941240       0.09416390
H       -0.74885681       0.13310826       2.57278352        0       0.42089371       0.09196203      -0.38353848       1.48616413       0.67625790      -0.10010389       0.04458936
H        0.13552322      -1.18023323       2.56801117        0      -0.01025915      -0.22291509      -0.07756627       1.60635471      -1.39880489       0.62281312       0.08635655
H        0.67054270       0.07374557      -3.19224810        0      -0.63346431       0.33917312      -0.14679784       0.41134800      -0.56470781       0.39940545       0.07541316
H       -0.93272196      -0.00230013      -2.33949697        0      -0.15308228      -0.11097290       0.10514769      -0.38077867      -0.47032159      -0.72058900       0.07450247
H       -0.15433706       1.48218467      -2.65389493        0       0.60580505      -0.01457414      -0.10450222       0.16962058       1.09368370       0.26175521       0.07181573
12
Properties=species:S:1:pos:R:3:molID:I:1:momenta:R:3:forces:R:3:charge:R:1 Nmols=1 Comp=DMC(1) energy=-589.2635447855677 free_energy=-589.2635447855677 dipole="0.28921254212355935 0.26457926751923894 -0.11812752319757064" pbc="F F F"
C       -0.17941110      -0.13094957      -0.04986589        0      -1.11336243       1.02411170       0.58464473      -2.09249718      -1.18320361       2.45872560       0.48962300
O       -1.30745040      -0.56519974       0.03071795        0       1.01940075      -0.51129315      -0.37779155       0.60475025       0.48890246      -0.51150376      -0.46259315
O        0.64762229      -0.07953742       1.02601350        0       0.91889260      -2.63831353       0.53017782       1.34745683       0.51075788      -0.27196960      -0.31620589
O        0.45335313       0.32896132      -1.07446064        0      -0.12647159       0.06533151      -1.76212717       1.00115234      -0.05151033      -1.34440706      -0.24345936
C        0.44700043      -0.06594401       2.47946421        0       0.51955798       1.11383007      -0.49931781      -0.30849076       4.46583980      -1.85808680       0.03369844
C       -0.08777190       0.49166768      -2.41082379        0      -1.26893791       0.47738372       0.07457734       0.81913395       0.92434362       0.67880643       0.01973933
H        1.40265206       0.52884891       2.86578519        0       0.24118743      -0.25039636      -0.23226929      -2.01604896      -0.58507711      -0.75252207       0.06610718
H       -0.56799682       0.54556931       2.65296881        0       0.02642708       0.32308143       0.59684877       2.12168171      -1.69854383       0.19828209       0.07315876
H        0.62662052      -1.01096275       2.81625606        0       0.57630046       0.34512353       0.64596141      -0.61890799      -2.41324272       1.03344015       0.09336482
H        0.43983920      -0.03255774      -3.19418526        0      -0.15618934      -0.23432853       0.55457743       0.77648416      -0.53317487       0.29072512       0.07622659
H       -1.10158248       0.19467619      -2.55295932        0      -0.46179597       0.57095239      -0.24615979      -0.90933117       0.19345931       0.55192504       0.08356127
H        0.14850367       1.55768028      -2.53857779        0      -0.17500907      -0.28548277       0.13087812      -0.72538318      -0.11855061      -0.47341515       0.08677900
12
Properties=species:S:1:pos:R:3:molID:I:1:momenta:R:3:forces:R:3:charge:R:1 Nmols=1 Comp=DMC(1) energy=-588.3278603827681 free_energy=-588.3278603827681 dipole="0.0939968062653799 0.3476917432047486 0.15593846776795564" pbc="F F F"
C       -0.19400660      -0.06417092       0.04022124        0       0.82771499       0.28447419       0.77922215       0.90984016      -1.79368191      -1.67550034       0.46832980
O       -1.26983795      -0.59584617       0.01174043        0      -0.35291769      -0.17054451      -0.23255121      -0.13942573       1.17206040       0.26516307      -0.40405171
O        0.71402289      -0.21551070       1.03742041        0       0.60995262      -1.81198991      -0.43807438      -1.51248172       1.18788025      -1.51702931      -0.25408927
O        0.46083618       0.35955453      -1.14451795        0      -0.28226997       0.47848394      -0.13760931      -0.98843337       0.55073698       3.06175675      -0.29755218
C        0.46621814      -0.01915614       2.41740148        0       1.07361059      -0.46577144       0.02276729       4.22022481       1.54655640       0.79050808       0.03135780
C       -0.23672140       0.52965937      -2.37700754        0      -1.31012282       0.76753308       0.33421283       3.63095451       1.68800254      -0.47816527       0.02953461
H        1.52906376       0.53647530       2.59447328        0       0.11389661       0.48940773      -0.13392836      -2.22872263      -0.57188210       0.53813102       0.05950040
H       -0.27133170       0.42625935       3.06186717        0      -0.17907602       0.24213815       0.15051868      -1.04808837       1.08388282      -1.48424678       0.07576805
H        0.59996441      -0.89956239       2.96213663        0      -0.15802815       0.12470691      -0.44994423       0.36528508      -2.25359792       0.31285220       0.07111435
H        0.36541814      -0.24836267      -2.90185803        0      -0.43084047       0.40632239      -0.00124216      -1.27394662       0.85887100      -0.90138320       0.09440543
H       -1.26043790       0.53288723      -2.36349455        0      -0.06571738      -0.08994142       0.53348206      -2.31982506      -1.08471700       0.36866048       0.08020407
H       -0.06106866       1.67002433      -2.77009295        0       0.15379769      -0.25481911      -0.42685335       0.38461893      -2.38411147       0.71925330       0.04547865
12
Properties=species:S:1:pos:R:3:molID:I:1:momenta:R:3:forces:R:3:charge:R:1 Nmols=1 Comp=DMC(1) energy=-589.1334081266954 free_energy=-589.1334081266954 dipole="0.16611898129858993 0.2956728929628755 0.1271208804424203" pbc="F F F"
C       -0.16496628      -0.13320401       0.03285987        0      -0.66082437      -1.54324691      -1.21638278      -0.04889414      -0.30493870      -1.58421207       0.48605331
O       -1.29284847      -0.54365366       0.00895818        0      -0.15650133       1.83317018      -0.09658130       0.10892117       0.51833216       0.51399770      -0.42684554
O        0.74380879      -0.28829379       0.98194466        0       0.94970930      -0.58889027      -1.23919310       1.38878293       0.99448739      -0.31500845      -0.29884791
O        0.44702077       0.39653920      -1.08502187        0       0.09318794       0.53978263       1.61373859      -0.02717338       0.06125123       0.01028930      -0.28777954
C        0.57596023      -0.02133624       2.42643302        0       1.09281394      -0.84802893      -0.74472660      -0.81457518       0.93491107      -2.20024351       0.01705274
C       -0.31371164       0.59747476      -2.31336703        0      -0.82142891      -0.04487784       0.99218530       1.27645484      -1.55387619      -1.29915321       0.02062814
H        1.37161053       0.70457190       2.79905745        0       0.25984172       0.12681694       0.61927769      -0.75730532      -1.29902650      -0.61557079       0.08290482
H       -0.39674270       0.52006490       2.38523061        0      -0.05269884      -0.33042193      -0.77360263       0.36761225      -0.66765268       1.12084300       0.07755667
H        0.60030582      -1.05625986       2.72553638        0      -0.11805034       0.50625344       0.17864725      -0.13802409       0.27837481       1.33405790       0.10753570
H       -0.16300918      -0.23927506      -3.10620203        0      -0.68508828       0.04320020       0.28533643       0.44175355       0.48646586       1.39818915       0.04467371
H       -1.33291837       0.37238838      -2.02827018        0       0.13405045       0.14706046       0.05490445      -0.52125762       1.28838315      -0.20793996       0.09600521
H        0.11457640       1.47092594      -2.93873306        0      -0.03501127       0.15918202       0.32639669      -1.27629501      -0.73671161       1.84475094       0.08106268
12
Properties=species:S:1:pos:R:3:molID:I:1:momenta:R:3:forces:R:3:charge:R:1 Nmols=1 Comp=DMC(1) energy=-589.1157400933354 free_energy=-589.1157400933354 dipole="0.10084631685029719 0.23003658417887393 -0.05253045636694149" pbc="F F F"
C       -0.16174437      -0.21833111      -0.04423550        0       0.18174151      -0.26942154      -0.31215953       0.26104430       0.92006578       1.83813314       0.48561387
O       -1.34173203      -0.41668848       0.04279114        0      -0.85219107       2.41705817       1.51455940       0.80972746      -0.48871902       0.55652368      -0.42701941
O        0.84887617      -0.33883006       0.89494162        0       2.33630718      -1.18535306      -1.36656523      -0.48805512      -0.19361198       1.26291042      -0.29582427
O        0.43585986       0.40803450      -1.01833750        0      -0.17462844      -0.51150844       0.35528491      -0.26530434      -0.23266965      -2.30719492      -0.24798243
C        0.61740382      -0.04365475       2.30921119        0      -0.25734395      -1.47351592      -1.22649912      -3.15017357      -3.02968617       0.79382472       0.03519619
C       -0.36777375       0.57007284      -2.23392452        0      -1.11343924      -0.02198475       1.14660039      -0.85331011       2.56036478       1.65956112       0.01161842
H        1.35555025       0.55963587       2.77998452        0       0.25196714       0.35547582      -0.36818422       0.19538018       0.90041795      -0.53534788       0.08657183
H       -0.49366611       0.20697742       2.36796547        0      -0.42927437       0.01515401       0.49495313       1.46511386       0.74600281       0.06597064       0.06681276
H        0.54945227      -0.97474697       3.12247794        0      -0.10989610       0.19987978      -0.29109832       0.63294746       1.09033559      -2.38903099       0.03425234
H       -0.40130587      -0.34714085      -2.81741963        0       0.01810841       0.02434523       0.23844450       0.25381596       0.58038666      -0.15794909       0.08910819
H       -1.40711870       0.90375922      -1.88913865        0       0.29876526       0.37667581      -0.00895806       0.76421058      -1.13008246      -0.30213888       0.07243940
H       -0.04009713       1.58752105      -2.61371052        0      -0.15011633       0.07319488      -0.17637786       0.37460335      -1.72280429      -0.48526197       0.08921310
12
Properties=species:S:1:pos:R:3:molID:I:1:momenta:R:3:forces:R:3:charge:R:1 Nmols=1 Comp=DMC(1) energy=-589.0813674306258 free_energy=-589.0813674306258 dipole="0.11459373499756795 0.16445566356004326 0.0167382739274357" pbc="F F F"
C       -0.15008382      -0.23074713       0.00614423        0      -0.05799900      -0.28383444       1.24373698       0.81671668       1.63722083      -0.48814118       0.47779882
O       -1.34476990      -0.29244720       0.12471198        0       0.85455601       2.11889556       1.08479461       1.08304460      -0.83984756       0.82870373      -0.42057003
O        0.91996086      -0.41212468       0.83858536        0      -0.33630653      -1.68823961      -0.77476088      -3.28167945      -0.53420506      -0.66249610      -0.27456634